{
    "molecules": [
      {
        "name": "Baking soda",
        "formula": "NaHCO3",
        "labels": {
          "title": "Sodium Bicarbonate",
          "description": "Common household chemical used in baking and cleaning",
          "type": "Ionic Compound",
          "uses": ["Baking", "Cleaning", "Fire Extinguisher"],
          "properties": {
            "molarMass": "84.007 g/mol",
            "density": "2.20 g/cm³",
            "meltingPoint": "50 °C"
          }
        },
        "atoms": [
          { "type": "Na", "position": { "x": -3.0, "y": -0.675, "z": 0 }, "charge": "+1" },
          { "type": "C", "position": { "x": 0, "y": 0, "z": 0 }, "charge": "0" },
          { "type": "O", "position": { "x": 0, "y": 1.23, "z": 0 }, "charge": "0" },
          { "type": "O", "position": { "x": -1.17, "y": -0.675, "z": 0 }, "charge": "-1" },
          { "type": "O", "position": { "x": 1.17, "y": -0.675, "z": 0 }, "charge": "0" },
          { "type": "H", "position": { "x": 1.8, "y": -1.1, "z": 0 }, "charge": "0" }
        ],
        "bonds": [
          { "atom1Index": 1, "atom2Index": 2, "isDouble": true },
          { "atom1Index": 1, "atom2Index": 3, "isDouble": false },
          { "atom1Index": 1, "atom2Index": 4, "isDouble": false },
          { "atom1Index": 4, "atom2Index": 5, "isDouble": false },
          { "atom1Index": 0, "atom2Index": 3, "isDouble": false }
        ]
      },
      {
        "name": "Ethanol",
        "formula": "C2H6O",
        "labels": {
          "title": "Ethyl Alcohol",
          "description": "Common alcohol found in alcoholic beverages and used as a fuel",
          "type": "Organic Compound",
          "uses": ["Beverages", "Fuel", "Solvent"],
          "properties": {
            "molarMass": "46.07 g/mol",
            "density": "0.789 g/cm³",
            "boilingPoint": "78.37 °C"
          }
        },
        "atoms": [
          { "type": "H", "position": { "x": 1.5, "y": -0.75, "z": -0.75 }, "charge": "0" },
          { "type": "H", "position": { "x": 1.5, "y": -0.75, "z": 0.75 }, "charge": "0" },
          { "type": "H", "position": { "x": -1.875, "y": 0.75, "z": -0.75 }, "charge": "0" },
          { "type": "H", "position": { "x": -1.875, "y": 0.75, "z": 0.75 }, "charge": "0" },
          { "type": "H", "position": { "x": -1.65, "y": -0.75, "z": 0 }, "charge": "0" },
          { "type": "H", "position": { "x": 2.625, "y": 1.125, "z": 0 }, "charge": "0" },
          { "type": "C", "position": { "x": 0.75, "y": 0, "z": 0 }, "charge": "0" },
          { "type": "C", "position": { "x": -0.75, "y": 0, "z": 0 }, "charge": "0" },
          { "type": "O", "position": { "x": 1.5, "y": 1.5, "z": 0 }, "charge": "0" }
        ],
        "bonds": [
          { "atom1Index": 6, "atom2Index": 7, "isDouble": false },
          { "atom1Index": 6, "atom2Index": 0, "isDouble": false },
          { "atom1Index": 6, "atom2Index": 1, "isDouble": false },
          { "atom1Index": 7, "atom2Index": 2, "isDouble": false },
          { "atom1Index": 7, "atom2Index": 3, "isDouble": false },
          { "atom1Index": 7, "atom2Index": 4, "isDouble": false },
          { "atom1Index": 6, "atom2Index": 8, "isDouble": false },
          { "atom1Index": 8, "atom2Index": 5, "isDouble": false }
        ]
      },
      {
        "name": "Lactate",
        "formula": "C3H5O3",
        "labels": {
          "title": "Lactic Acid",
          "description": "Organic acid produced during anaerobic respiration",
          "type": "Organic Acid",
          "uses": ["Food Preservation", "Cosmetics", "Medical"],
          "properties": {
            "molarMass": "90.08 g/mol",
            "density": "1.206 g/cm³",
            "meltingPoint": "18 °C"
          }
        },
        "atoms": [
          { "type": "C", "position": { "x": -1.5, "y": 0, "z": 0 }, "charge": "0" },
          { "type": "C", "position": { "x": 0, "y": 0, "z": 0 }, "charge": "0" },
          { "type": "C", "position": { "x": 0.5, "y": -1.0392, "z": -1.3 }, "charge": "0" },
          { "type": "H", "position": { "x": -2.5, "y": -1.5, "z": 0 }, "charge": "0" },
          { "type": "H", "position": { "x": -2.5, "y": 0.75, "z": 1.3 }, "charge": "0" },
          { "type": "H", "position": { "x": -2.5, "y": 0.75, "z": -1.3 }, "charge": "0" },
          { "type": "H", "position": { "x": 0.5, "y": -0.5196, "z": 1.3 }, "charge": "0" },
          { "type": "H", "position": { "x": 3.0, "y": -1.75, "z": -2.975 }, "charge": "0" },
          { "type": "H", "position": { "x": 0.375, "y": 2.5, "z": 1.3 }, "charge": "0" },
          { "type": "O", "position": { "x": 1.125, "y": 1.5, "z": 0 }, "charge": "0" },
          { "type": "O", "position": { "x": 1.875, "y": -0.75, "z": -1.875 }, "charge": "0" },
          { "type": "O", "position": { "x": 0.375, "y": -1.875, "z": -1.875 }, "charge": "0" }
        ],
        "bonds": [
          { "atom1Index": 1, "atom2Index": 6, "isDouble": false },
          { "atom1Index": 1, "atom2Index": 9, "isDouble": false },
          { "atom1Index": 2, "atom2Index": 10, "isDouble": false },
          { "atom1Index": 2, "atom2Index": 11, "isDouble": true },
          { "atom1Index": 10, "atom2Index": 7, "isDouble": false },
          { "atom1Index": 9, "atom2Index": 8, "isDouble": false },
          { "atom1Index": 0, "atom2Index": 3, "isDouble": false },
          { "atom1Index": 0, "atom2Index": 4, "isDouble": false },
          { "atom1Index": 0, "atom2Index": 5, "isDouble": false },
          { "atom1Index": 0, "atom2Index": 1, "isDouble": false },
          { "atom1Index": 1, "atom2Index": 2, "isDouble": false }
        ]
      },
      {
        "name": "Methane",
        "formula": "CH4",
        "labels": {
          "title": "Natural Gas",
          "description": "Simplest alkane and main component of natural gas",
          "type": "Hydrocarbon",
          "uses": ["Fuel", "Chemical Production", "Power Generation"],
          "properties": {
            "molarMass": "16.04 g/mol",
            "density": "0.717 kg/m³",
            "boilingPoint": "-161.5 °C"
          }
        },
        "atoms": [
          { "type": "H", "position": { "x": 0, "y": 1.5, "z": 0 }, "charge": "0" },
          { "type": "H", "position": { "x": 1.35, "y": -0.5, "z": 0 }, "charge": "0" },
          { "type": "H", "position": { "x": -0.675, "y": -0.5, "z": 1.169 }, "charge": "0" },
          { "type": "H", "position": { "x": -0.675, "y": -0.5, "z": -1.169 }, "charge": "0" },
          { "type": "C", "position": { "x": 0, "y": 0, "z": 0 }, "charge": "0" }
        ],
        "bonds": [
          { "atom1Index": 0, "atom2Index": 4, "isDouble": false },
          { "atom1Index": 1, "atom2Index": 4, "isDouble": false },
          { "atom1Index": 2, "atom2Index": 4, "isDouble": false },
          { "atom1Index": 3, "atom2Index": 4, "isDouble": false }
        ]
      },
      {
        "name": "Water",
        "formula": "H2O",
        "labels": {
          "title": "Dihydrogen Monoxide",
          "description": "Essential compound for all known forms of life",
          "type": "Inorganic Compound",
          "uses": ["Drinking", "Cleaning", "Industrial Processes"],
          "properties": {
            "molarMass": "18.015 g/mol",
            "density": "1 g/cm³",
            "boilingPoint": "100 °C"
          }
        },
        "atoms": [
          { "type": "H", "position": { "x": 0, "y": 1.41, "z": 0.95 }, "charge": "0" },
          { "type": "H", "position": { "x": 0, "y": 1.41, "z": -0.95 }, "charge": "0" },
          { "type": "O", "position": { "x": 0, "y": 0, "z": 0 }, "charge": "0" }
        ],
        "bonds": [
          { "atom1Index": 2, "atom2Index": 0, "isDouble": false },
          { "atom1Index": 2, "atom2Index": 1, "isDouble": false }
        ]
      },
      {
        "name": "Ammonia",
        "formula": "NH3",
        "labels": {
          "title": "Ammonia",
          "description": "Common nitrogen compound with a characteristic pungent smell",
          "type": "Inorganic Compound",
          "uses": ["Fertilizer", "Cleaning", "Refrigeration"],
          "properties": {
            "molarMass": "17.031 g/mol",
            "density": "0.73 kg/m³",
            "boilingPoint": "-33.34 °C"
          }
        },
        "atoms": [
          { "type": "H", "position": { "x": 0.75, "y": 0, "z": -0.75 }, "charge": "0" },
          { "type": "H", "position": { "x": -0.375, "y": 0.65, "z": -0.75 }, "charge": "0" },
          { "type": "H", "position": { "x": -0.375, "y": -0.65, "z": -0.75 }, "charge": "0" },
          { "type": "N", "position": { "x": 0, "y": 0, "z": 0.75 }, "charge": "0" }
        ],
        "bonds": [
          { "atom1Index": 0, "atom2Index": 3, "isDouble": false },
          { "atom1Index": 1, "atom2Index": 3, "isDouble": false },
          { "atom1Index": 2, "atom2Index": 3, "isDouble": false }
        ]
      },
      {
        "name": "Sodium Nitrite",
        "formula": "NaNO2",
        "labels": {
          "title": "Sodium Nitrite",
          "description": "Common food preservative and color fixative",
          "type": "Inorganic Salt",
          "uses": ["Food Preservation", "Dye Industry", "Medicine"],
          "properties": {
            "molarMass": "69.00 g/mol",
            "density": "2.168 g/cm³",
            "meltingPoint": "271 °C"
          }
        },
        "atoms": [
          { "type": "Na", "position": { "x": -2.0, "y": 0, "z": 0 }, "charge": "+1" },
          { "type": "N", "position": { "x": 0, "y": 0, "z": 0 }, "charge": "0" },
          { "type": "O", "position": { "x": 1.2, "y": 0, "z": 0 }, "charge": "0" },
          { "type": "O", "position": { "x": -0.6, "y": 1.0, "z": 0 }, "charge": "-1" }
        ],
        "bonds": [
          { "atom1Index": 1, "atom2Index": 2, "isDouble": true },
          { "atom1Index": 1, "atom2Index": 3, "isDouble": false },
          { "atom1Index": 0, "atom2Index": 3, "isDouble": false }
        ]
      }
    ]
}